{
  "Acentric_Factor": 1.0399607740740926,
  "BO_BSW": 0.0,
  "BO_GOR": 0.0,
  "BO_OilVisc1": 0.0,
  "BO_OilVisc2": 0.0,
  "BO_OilViscTemp1": 0.0,
  "BO_OilViscTemp2": 0.0,
  "BO_PNA_A": 0.0,
  "BO_PNA_N": 0.0,
  "BO_PNA_P": 0.0,
  "BO_SGG": 0.0,
  "BO_SGO": 0.0,
  "CAS_Number": "",
  "Chao_Seader_Acentricity": 0.0,
  "Chao_Seader_Liquid_Molar_Volume": 0.0,
  "Chao_Seader_Solubility_Parameter": 0.0,
  "Charge": 0,
  "ChemicalStructure": "",
  "Comments": "",
  "CompCreatorStudyFile": "",
  "COSMODBName": null,
  "Critical_Compressibility": 0.16979224954680056,
  "Critical_Pressure": 1270966.9834551876,
  "Critical_Temperature": 943.10580499460082,
  "Critical_Volume": 1.0475,
  "CurrentDB": "User",
  "Dipole_Moment": 0.0,
  "Electrolyte_Cp0": 0.0,
  "Electrolyte_DelGF": 0.0,
  "Electrolyte_DelHF": 0.0,
  "EnthalpyOfFusionAtTf": 52.721,
  "Formula": "C18H33O2Na",
  "HVap_A": 0.0,
  "HVap_B": 0.0,
  "HVap_C": 0.0,
  "HVap_D": 0.0,
  "HVap_E": 0.0,
  "HVap_TMAX": 0.0,
  "HVap_TMIN": 0.0,
  "HydrationNumber": 0.0,
  "ID": 749169,
  "Ideal_Gas_Heat_Capacity_Const_A": -23055.999999999996,
  "Ideal_Gas_Heat_Capacity_Const_B": 1784.62,
  "Ideal_Gas_Heat_Capacity_Const_C": -1.1118000000000001,
  "Ideal_Gas_Heat_Capacity_Const_D": 0.0002784,
  "Ideal_Gas_Heat_Capacity_Const_E": 0.0,
  "IdealgasCpEquation": "4",
  "IG_Enthalpy_of_Formation_25C": -2293.7111460413221,
  "IG_Entropy_of_Formation_25C": 0.0,
  "IG_Gibbs_Energy_of_Formation_25C": -577.091918376595,
  "InChI": "",
  "Ion_CpAq_a": 0.0,
  "Ion_CpAq_b": 0.0,
  "Ion_CpAq_c": 0.0,
  "IsBlackOil": false,
  "IsCOOLPROPSupported": false,
  "IsFPROPSSupported": false,
  "IsHydratedSalt": false,
  "IsHYPO": 0,
  "IsIon": false,
  "IsModified": false,
  "IsPF": 0,
  "IsSalt": false,
  "Liquid_Density_Const_A": 0.0,
  "Liquid_Density_Const_B": 0.0,
  "Liquid_Density_Const_C": 0.0,
  "Liquid_Density_Const_D": 0.0,
  "Liquid_Density_Const_E": 0.0,
  "Liquid_Density_Tmax": 0.0,
  "Liquid_Density_Tmin": 0.0,
  "Liquid_Heat_Capacity_Const_A": 0.0,
  "Liquid_Heat_Capacity_Const_B": 0.0,
  "Liquid_Heat_Capacity_Const_C": 0.0,
  "Liquid_Heat_Capacity_Const_D": 0.0,
  "Liquid_Heat_Capacity_Const_E": 0.0,
  "Liquid_Heat_Capacity_Tmax": 0.0,
  "Liquid_Heat_Capacity_Tmin": 0.0,
  "Liquid_Thermal_Conductivity_Const_A": 0.0,
  "Liquid_Thermal_Conductivity_Const_B": 0.0,
  "Liquid_Thermal_Conductivity_Const_C": 0.0,
  "Liquid_Thermal_Conductivity_Const_D": 0.0,
  "Liquid_Thermal_Conductivity_Const_E": 0.0,
  "Liquid_Thermal_Conductivity_Tmax": 0.0,
  "Liquid_Thermal_Conductivity_Tmin": 0.0,
  "Liquid_Viscosity_Const_A": 0.0,
  "Liquid_Viscosity_Const_B": 0.0,
  "Liquid_Viscosity_Const_C": 0.0,
  "Liquid_Viscosity_Const_D": 0.0,
  "Liquid_Viscosity_Const_E": 0.0,
  "LiquidDensityEquation": "",
  "LiquidHeatCapacityEquation": "",
  "LiquidThermalConductivityEquation": "",
  "LiquidViscosityEquation": "",
  "Molar_Weight": 304.0,
  "MolarVolume_k1i": 0.0,
  "MolarVolume_k2i": 0.0,
  "MolarVolume_k3i": 0.0,
  "MolarVolume_v2i": 0.0,
  "MolarVolume_v3i": 0.0,
  "Name": "Sodium Soap",
  "NBP": null,
  "NegativeIon": "",
  "NegativeIonStoichCoeff": 0,
  "Normal_Boiling_Point": 761.1099999999999,
  "OriginalDB": "User",
  "PC_SAFT_epsilon_k": 0.0,
  "PC_SAFT_m": 0.0,
  "PC_SAFT_sigma": 0.0,
  "PF_MM": null,
  "PF_SG": null,
  "PF_Tv1": null,
  "PF_Tv2": null,
  "PF_v1": null,
  "PF_v2": null,
  "PF_vA": null,
  "PF_vB": null,
  "PF_Watson_K": null,
  "PositiveIon": "",
  "PositiveIonStoichCoeff": 0,
  "PR_Volume_Translation_Coefficient": 0.0,
  "SMILES": "",
  "Solid_Density_Const_A": 0.0,
  "Solid_Density_Const_B": 0.0,
  "Solid_Density_Const_C": 0.0,
  "Solid_Density_Const_D": 0.0,
  "Solid_Density_Const_E": 0.0,
  "Solid_Density_Tmax": 0.0,
  "Solid_Density_Tmin": 0.0,
  "Solid_Heat_Capacity_Const_A": 0.0,
  "Solid_Heat_Capacity_Const_B": 0.0,
  "Solid_Heat_Capacity_Const_C": 0.0,
  "Solid_Heat_Capacity_Const_D": 0.0,
  "Solid_Heat_Capacity_Const_E": 0.0,
  "Solid_Heat_Capacity_Tmax": 0.0,
  "Solid_Heat_Capacity_Tmin": 0.0,
  "SolidDensityAtTs": 0.0,
  "SolidDensityEquation": "",
  "SolidHeatCapacityEquation": "",
  "SolidTs": 0.0,
  "SRK_Volume_Translation_Coefficient": 0.0,
  "StandardStateMolarVolume": 0.0,
  "StoichSum": 0,
  "Surface_Tension_Const_A": 0.0,
  "Surface_Tension_Const_B": 0.0,
  "Surface_Tension_Const_C": 0.0,
  "Surface_Tension_Const_D": 0.0,
  "Surface_Tension_Const_E": 0.0,
  "Surface_Tension_Tmax": 0.0,
  "Surface_Tension_Tmin": 0.0,
  "SurfaceTensionEquation": "",
  "TemperatureOfFusion": 448.14,
  "UNIQUAC_Q": 0.0,
  "UNIQUAC_R": 0.0,
  "Vapor_Pressure_Constant_A": 0.0,
  "Vapor_Pressure_Constant_B": 0.0,
  "Vapor_Pressure_Constant_C": 0.0,
  "Vapor_Pressure_Constant_D": 0.0,
  "Vapor_Pressure_Constant_E": 0.0,
  "Vapor_Pressure_TMAX": 0.0,
  "Vapor_Pressure_TMIN": 0.0,
  "Vapor_Thermal_Conductivity_Const_A": 0.0,
  "Vapor_Thermal_Conductivity_Const_B": 0.0,
  "Vapor_Thermal_Conductivity_Const_C": 0.0,
  "Vapor_Thermal_Conductivity_Const_D": 0.0,
  "Vapor_Thermal_Conductivity_Const_E": 0.0,
  "Vapor_Thermal_Conductivity_Tmax": 0.0,
  "Vapor_Thermal_Conductivity_Tmin": 0.0,
  "Vapor_Viscosity_Const_A": 0.0,
  "Vapor_Viscosity_Const_B": 0.0,
  "Vapor_Viscosity_Const_C": 0.0,
  "Vapor_Viscosity_Const_D": 0.0,
  "Vapor_Viscosity_Const_E": 0.0,
  "Vapor_Viscosity_Tmax": 0.0,
  "Vapor_Viscosity_Tmin": 0.0,
  "VaporizationEnthalpyEquation": "",
  "VaporPressureEquation": "",
  "VaporThermalConductivityEquation": "",
  "VaporViscosityEquation": "",
  "Z_Rackett": 0.16979224954680056,
  "Elements": {
    "C": 18.0,
    "H": 33.0,
    "Na": 1.0,
    "O": 2.0
  },
  "MODFACGroups": {},
  "NISTMODFACGroups": {},
  "UNIFACGroups": {
    "1": 1,
    "2": 14,
    "43": 1,
    "6": 1
  },
  "FullerDiffusionVolume": 0.0,
  "LennardJonesDiameter": 0.0,
  "LennardJonesEnergy": 0.0,
  "Parachor": 0.0,
  "Tag": "",
  "ExtraProperties": {},
  "COSTALD_SRK_Acentric_Factor": 0.0,
  "COSTALD_Characteristic_Volume": 0.0,
  "IsSolid": false,
  "ChemSepFamily": 1000,
  "Vapor_Pressure_Regression_Fit": 0.0,
  "Vapor_Pressure_Tabular_Data": {
    "XName": "",
    "YName": "",
    "XUnit": "",
    "YUnit": "",
    "XData": [],
    "YData": [],
    "Source": "",
    "Comments": ""
  },
  "Ideal_Gas_Heat_Capacity_Regression_Fit": 0.0,
  "Ideal_Gas_Heat_Capacity_Tabular_Data": {
    "XName": "",
    "YName": "",
    "XUnit": "",
    "YUnit": "",
    "XData": [],
    "YData": [],
    "Source": "",
    "Comments": ""
  },
  "Liquid_Viscosity_Regression_Fit": 0.0,
  "Liquid_Viscosity_Tabular_Data": {
    "XName": "",
    "YName": "",
    "XUnit": "",
    "YUnit": "",
    "XData": [],
    "YData": [],
    "Source": "",
    "Comments": ""
  },
  "Liquid_Density_Regression_Fit": 0.0,
  "Liquid_Density_Tabular_Data": {
    "XName": "",
    "YName": "",
    "XUnit": "",
    "YUnit": "",
    "XData": [],
    "YData": [],
    "Source": "",
    "Comments": ""
  },
  "Liquid_Heat_Capacity_Regression_Fit": 0.0,
  "Liquid_Heat_Capacity_Tabular_Data": {
    "XName": "",
    "YName": "",
    "XUnit": "",
    "YUnit": "",
    "XData": [],
    "YData": [],
    "Source": "",
    "Comments": ""
  },
  "Liquid_Thermal_Conductivity_Regression_Fit": 0.0,
  "Liquid_Thermal_Conductivity_Tabular_Data": {
    "XName": "",
    "YName": "",
    "XUnit": "",
    "YUnit": "",
    "XData": [],
    "YData": [],
    "Source": "",
    "Comments": ""
  },
  "Vapor_Thermal_Conductivity_Regression_Fit": 0.0,
  "Vapor_Thermal_Conductivity_Tabular_Data": {
    "XName": "",
    "YName": "",
    "XUnit": "",
    "YUnit": "",
    "XData": [],
    "YData": [],
    "Source": "",
    "Comments": ""
  },
  "Vapor_Viscosity_Regression_Fit": 0.0,
  "Vapor_Viscosity_Tabular_Data": {
    "XName": "",
    "YName": "",
    "XUnit": "",
    "YUnit": "",
    "XData": [],
    "YData": [],
    "Source": "",
    "Comments": ""
  },
  "Solid_Density_Regression_Fit": 0.0,
  "Solid_Density_Tabular_Data": {
    "XName": "",
    "YName": "",
    "XUnit": "",
    "YUnit": "",
    "XData": [],
    "YData": [],
    "Source": "",
    "Comments": ""
  },
  "Surface_Tension_Regression_Fit": 0.0,
  "Surface_Tension_Tabular_Data": {
    "XName": "",
    "YName": "",
    "XUnit": "",
    "YUnit": "",
    "XData": [],
    "YData": [],
    "Source": "",
    "Comments": ""
  },
  "Solid_Heat_Capacity_Regression_Fit": 0.0,
  "Solid_Heat_Capacity_Tabular_Data": {
    "XName": "",
    "YName": "",
    "XUnit": "",
    "YUnit": "",
    "XData": [],
    "YData": [],
    "Source": "",
    "Comments": ""
  },
  "Enthalpy_Of_Vaporization_Regression_Fit": 0.0,
  "Enthalpy_Of_Vaporization_Tabular_Data": {
    "XName": "",
    "YName": "",
    "XUnit": "",
    "YUnit": "",
    "XData": [],
    "YData": [],
    "Source": "",
    "Comments": ""
  },
  "StandardHeatOfCombustion_LHV": 0.0
}