{
  "Acentric_Factor": 0.011,
  "BO_BSW": 0.0,
  "BO_GOR": 0.0,
  "BO_OilVisc1": 0.0,
  "BO_OilVisc2": 0.0,
  "BO_OilViscTemp1": 0.0,
  "BO_OilViscTemp2": 0.0,
  "BO_PNA_A": 0.0,
  "BO_PNA_N": 0.0,
  "BO_PNA_P": 0.0,
  "BO_SGG": 0.0,
  "BO_SGO": 0.0,
  "CAS_Number": "74-82-8",
  "Chao_Seader_Acentricity": 0.0,
  "Chao_Seader_Liquid_Molar_Volume": 37.839200000000005,
  "Chao_Seader_Solubility_Parameter": 0.00277501792024,
  "Charge": 0,
  "ChemicalStructure": "",
  "Comments": "",
  "CompCreatorStudyFile": "",
  "COSMODBName": null,
  "Critical_Compressibility": 0.286,
  "Critical_Pressure": 4599000.0,
  "Critical_Temperature": 190.56,
  "Critical_Volume": 0.0986,
  "CurrentDB": "ChemSep",
  "Dipole_Moment": 0.0,
  "Electrolyte_Cp0": 0.0,
  "Electrolyte_DelGF": 0.0,
  "Electrolyte_DelHF": 0.0,
  "EnthalpyOfFusionAtTf": 0.9414,
  "Formula": "CH4",
  "HVap_A": 14418000.0,
  "HVap_B": 2.3055,
  "HVap_C": -5.4199,
  "HVap_D": 5.658,
  "HVap_E": -2.1286,
  "HVap_TMAX": 190.55,
  "HVap_TMIN": 90.67,
  "HydrationNumber": 0.0,
  "ID": 1,
  "Ideal_Gas_Heat_Capacity_Const_A": 33151.9,
  "Ideal_Gas_Heat_Capacity_Const_B": -1220.001,
  "Ideal_Gas_Heat_Capacity_Const_C": 12.0907,
  "Ideal_Gas_Heat_Capacity_Const_D": -0.000384791,
  "Ideal_Gas_Heat_Capacity_Const_E": 9.896403E-08,
  "IdealgasCpEquation": "16",
  "IG_Enthalpy_of_Formation_25C": -4645.1728724896311,
  "IG_Entropy_of_Formation_25C": -5.0239810431425829,
  "IG_Gibbs_Energy_of_Formation_25C": -3147.27292447667,
  "InChI": "",
  "Ion_CpAq_a": 0.0,
  "Ion_CpAq_b": 0.0,
  "Ion_CpAq_c": 0.0,
  "IsBlackOil": false,
  "IsCOOLPROPSupported": true,
  "IsFPROPSSupported": false,
  "IsHydratedSalt": false,
  "IsHYPO": 0,
  "IsIon": false,
  "IsModified": false,
  "IsPF": 0,
  "IsSalt": false,
  "Liquid_Density_Const_A": 1.894,
  "Liquid_Density_Const_B": 0.23603,
  "Liquid_Density_Const_C": 191.05,
  "Liquid_Density_Const_D": 0.21974,
  "Liquid_Density_Const_E": 0.0,
  "Liquid_Density_Tmax": 191.04,
  "Liquid_Density_Tmin": 90.68,
  "Liquid_Heat_Capacity_Const_A": 61157.0,
  "Liquid_Heat_Capacity_Const_B": 5034.1,
  "Liquid_Heat_Capacity_Const_C": -48.913,
  "Liquid_Heat_Capacity_Const_D": -0.22998,
  "Liquid_Heat_Capacity_Const_E": 0.0022243,
  "Liquid_Heat_Capacity_Tmax": 190.0,
  "Liquid_Heat_Capacity_Tmin": 88.71,
  "Liquid_Thermal_Conductivity_Const_A": 0.011567,
  "Liquid_Thermal_Conductivity_Const_B": -46.041,
  "Liquid_Thermal_Conductivity_Const_C": 0.10435,
  "Liquid_Thermal_Conductivity_Const_D": -0.012133,
  "Liquid_Thermal_Conductivity_Const_E": -5.1716E-06,
  "Liquid_Thermal_Conductivity_Tmax": 180.0,
  "Liquid_Thermal_Conductivity_Tmin": 90.69,
  "Liquid_Viscosity_Const_A": -45.328,
  "Liquid_Viscosity_Const_B": 724.39,
  "Liquid_Viscosity_Const_C": 6.5917,
  "Liquid_Viscosity_Const_D": -0.00010373,
  "Liquid_Viscosity_Const_E": 2.0,
  "LiquidDensityEquation": "105",
  "LiquidHeatCapacityEquation": "16",
  "LiquidThermalConductivityEquation": "16",
  "LiquidViscosityEquation": "101",
  "Molar_Weight": 16.04246,
  "MolarVolume_k1i": 0.0,
  "MolarVolume_k2i": 0.0,
  "MolarVolume_k3i": 0.0,
  "MolarVolume_v2i": 0.0,
  "MolarVolume_v3i": 0.0,
  "Name": "Methane",
  "NBP": null,
  "NegativeIon": "",
  "NegativeIonStoichCoeff": 0,
  "Normal_Boiling_Point": 111.66,
  "OriginalDB": "ChemSep",
  "PC_SAFT_epsilon_k": 0.0,
  "PC_SAFT_m": 0.0,
  "PC_SAFT_sigma": 0.0,
  "PF_MM": null,
  "PF_SG": null,
  "PF_Tv1": null,
  "PF_Tv2": null,
  "PF_v1": null,
  "PF_v2": null,
  "PF_vA": null,
  "PF_vB": null,
  "PF_Watson_K": null,
  "PositiveIon": "",
  "PositiveIonStoichCoeff": 0,
  "PR_Volume_Translation_Coefficient": 0.0,
  "SMILES": "C",
  "Solid_Density_Const_A": 33.457,
  "Solid_Density_Const_B": -0.033547,
  "Solid_Density_Const_C": -0.000155,
  "Solid_Density_Const_D": 0.0,
  "Solid_Density_Const_E": 0.0,
  "Solid_Density_Tmax": 90.69,
  "Solid_Density_Tmin": 23.15,
  "Solid_Heat_Capacity_Const_A": -3039.8,
  "Solid_Heat_Capacity_Const_B": 1292.4,
  "Solid_Heat_Capacity_Const_C": -15.448,
  "Solid_Heat_Capacity_Const_D": 0.082442,
  "Solid_Heat_Capacity_Const_E": -7.0636E-05,
  "Solid_Heat_Capacity_Tmax": 90.67,
  "Solid_Heat_Capacity_Tmin": 22.85,
  "SolidDensityAtTs": 0.0,
  "SolidDensityEquation": "2",
  "SolidHeatCapacityEquation": "100",
  "SolidTs": 0.0,
  "SRK_Volume_Translation_Coefficient": 0.0,
  "StandardStateMolarVolume": 0.0,
  "StoichSum": 0,
  "Surface_Tension_Const_A": -0.040703,
  "Surface_Tension_Const_B": -6.9523,
  "Surface_Tension_Const_C": -2.3114,
  "Surface_Tension_Const_D": -0.0055565,
  "Surface_Tension_Const_E": 5.7595E-06,
  "Surface_Tension_Tmax": 193.15,
  "Surface_Tension_Tmin": 90.0,
  "SurfaceTensionEquation": "16",
  "TemperatureOfFusion": 90.694,
  "UNIQUAC_Q": 1.152,
  "UNIQUAC_R": 1.1239,
  "Vapor_Pressure_Constant_A": 39.98844,
  "Vapor_Pressure_Constant_B": -1337.308,
  "Vapor_Pressure_Constant_C": -3.580049,
  "Vapor_Pressure_Constant_D": 3.20698E-05,
  "Vapor_Pressure_Constant_E": 2.0,
  "Vapor_Pressure_TMAX": 191.03,
  "Vapor_Pressure_TMIN": 83.65,
  "Vapor_Thermal_Conductivity_Const_A": 7.4705E-06,
  "Vapor_Thermal_Conductivity_Const_B": 1.4432,
  "Vapor_Thermal_Conductivity_Const_C": -57.569,
  "Vapor_Thermal_Conductivity_Const_D": 587.82,
  "Vapor_Thermal_Conductivity_Const_E": 0.0,
  "Vapor_Thermal_Conductivity_Tmax": 600.0,
  "Vapor_Thermal_Conductivity_Tmin": 90.694,
  "Vapor_Viscosity_Const_A": 5.3432E-07,
  "Vapor_Viscosity_Const_B": 0.58831,
  "Vapor_Viscosity_Const_C": 114.58,
  "Vapor_Viscosity_Const_D": -1338.5,
  "Vapor_Viscosity_Const_E": 0.0,
  "Vapor_Viscosity_Tmax": 1000.0,
  "Vapor_Viscosity_Tmin": 90.0,
  "VaporizationEnthalpyEquation": "106",
  "VaporPressureEquation": "101",
  "VaporThermalConductivityEquation": "102",
  "VaporViscosityEquation": "102",
  "Z_Rackett": 0.2876,
  "Elements": {
    "C": 1.0,
    "H": 4.0
  },
  "MODFACGroups": {},
  "NISTMODFACGroups": {},
  "UNIFACGroups": {},
  "FullerDiffusionVolume": 25.14,
  "LennardJonesDiameter": 3.871667E-10,
  "LennardJonesEnergy": 137.3608,
  "Parachor": 0.0129,
  "Tag": "",
  "ExtraProperties": {},
  "COSTALD_SRK_Acentric_Factor": 0.0074,
  "COSTALD_Characteristic_Volume": 0.09939
}