{
  "Acentric_Factor": 0.373245,
  "BO_BSW": 0.0,
  "BO_GOR": 0.0,
  "BO_OilVisc1": 0.0,
  "BO_OilVisc2": 0.0,
  "BO_OilViscTemp1": 0.0,
  "BO_OilViscTemp2": 0.0,
  "BO_PNA_A": 0.0,
  "BO_PNA_N": 0.0,
  "BO_PNA_P": 0.0,
  "BO_SGG": 0.0,
  "BO_SGO": 0.0,
  "CAS_Number": "872-50-4",
  "Chao_Seader_Acentricity": 0.373245,
  "Chao_Seader_Liquid_Molar_Volume": 96.6054,
  "Chao_Seader_Solubility_Parameter": 0.00553167336,
  "Charge": 0,
  "ChemicalStructure": "",
  "Comments": "",
  "CompCreatorStudyFile": "",
  "COSMODBName": null,
  "Critical_Compressibility": 0.234,
  "Critical_Pressure": 4780000.0,
  "Critical_Temperature": 726.0,
  "Critical_Volume": 0.316,
  "CurrentDB": "ChemSep",
  "Dipole_Moment": 1.36E-29,
  "Electrolyte_Cp0": 0.0,
  "Electrolyte_DelGF": 0.0,
  "Electrolyte_DelHF": 0.0,
  "EnthalpyOfFusionAtTf": 9.106,
  "Formula": "-C(O)N(CH3)CH2CH2CH2-",
  "HVap_A": 65332000.0,
  "HVap_B": 0.34736,
  "HVap_C": 0.0,
  "HVap_D": 0.0,
  "HVap_E": 0.0,
  "HVap_TMAX": 721.6,
  "HVap_TMIN": 249.15,
  "HydrationNumber": 0.0,
  "ID": 1071,
  "Ideal_Gas_Heat_Capacity_Const_A": 27840.4,
  "Ideal_Gas_Heat_Capacity_Const_B": -472.4714,
  "Ideal_Gas_Heat_Capacity_Const_C": 12.77778,
  "Ideal_Gas_Heat_Capacity_Const_D": 0.000156386,
  "Ideal_Gas_Heat_Capacity_Const_E": 0.0,
  "IdealgasCpEquation": "16",
  "IG_Enthalpy_of_Formation_25C": -2127.48572345107,
  "IG_Entropy_of_Formation_25C": -4.71309699328463,
  "IG_Gibbs_Energy_of_Formation_25C": -722.275854903254,
  "InChI": "",
  "Ion_CpAq_a": 0.0,
  "Ion_CpAq_b": 0.0,
  "Ion_CpAq_c": 0.0,
  "IsBlackOil": false,
  "IsCOOLPROPSupported": false,
  "IsFPROPSSupported": false,
  "IsHydratedSalt": false,
  "IsHYPO": 0,
  "IsIon": false,
  "IsModified": false,
  "IsPF": 0,
  "IsSalt": false,
  "Liquid_Density_Const_A": 0.83172,
  "Liquid_Density_Const_B": 0.25782,
  "Liquid_Density_Const_C": 721.6,
  "Liquid_Density_Const_D": 0.28269,
  "Liquid_Density_Const_E": 0.0,
  "Liquid_Density_Tmax": 721.6,
  "Liquid_Density_Tmin": 249.15,
  "Liquid_Heat_Capacity_Const_A": 29425.0,
  "Liquid_Heat_Capacity_Const_B": 427.36,
  "Liquid_Heat_Capacity_Const_C": 0.0,
  "Liquid_Heat_Capacity_Const_D": 0.0,
  "Liquid_Heat_Capacity_Const_E": 0.0,
  "Liquid_Heat_Capacity_Tmax": 541.35,
  "Liquid_Heat_Capacity_Tmin": 306.45,
  "Liquid_Thermal_Conductivity_Const_A": 0.18885,
  "Liquid_Thermal_Conductivity_Const_B": -0.000184,
  "Liquid_Thermal_Conductivity_Const_C": 0.0,
  "Liquid_Thermal_Conductivity_Const_D": 0.0,
  "Liquid_Thermal_Conductivity_Const_E": 0.0,
  "Liquid_Thermal_Conductivity_Tmax": 477.42,
  "Liquid_Thermal_Conductivity_Tmin": 249.15,
  "Liquid_Viscosity_Const_A": -28.445,
  "Liquid_Viscosity_Const_B": 2405.6,
  "Liquid_Viscosity_Const_C": 2.4757,
  "Liquid_Viscosity_Const_D": 0.0,
  "Liquid_Viscosity_Const_E": 0.0,
  "LiquidDensityEquation": "105",
  "LiquidHeatCapacityEquation": "100",
  "LiquidThermalConductivityEquation": "100",
  "LiquidViscosityEquation": "101",
  "Molar_Weight": 99.1311,
  "MolarVolume_k1i": 0.0,
  "MolarVolume_k2i": 0.0,
  "MolarVolume_k3i": 0.0,
  "MolarVolume_v2i": 0.0,
  "MolarVolume_v3i": 0.0,
  "Name": "N-methyl-2-pyrrolidone",
  "NBP": null,
  "NegativeIon": "",
  "NegativeIonStoichCoeff": 0,
  "Normal_Boiling_Point": 475.15,
  "OriginalDB": "ChemSep",
  "PC_SAFT_epsilon_k": 0.0,
  "PC_SAFT_m": 0.0,
  "PC_SAFT_sigma": 0.0,
  "PF_MM": null,
  "PF_SG": null,
  "PF_Tv1": null,
  "PF_Tv2": null,
  "PF_v1": null,
  "PF_v2": null,
  "PF_vA": null,
  "PF_vB": null,
  "PF_Watson_K": null,
  "PositiveIon": "",
  "PositiveIonStoichCoeff": 0,
  "PR_Volume_Translation_Coefficient": 0.0,
  "SMILES": "CN1CCCC1=O",
  "Solid_Density_Const_A": 13.744,
  "Solid_Density_Const_B": -0.0068957,
  "Solid_Density_Const_C": 0.0,
  "Solid_Density_Const_D": 0.0,
  "Solid_Density_Const_E": 0.0,
  "Solid_Density_Tmax": 249.15,
  "Solid_Density_Tmin": 99.66,
  "Solid_Heat_Capacity_Const_A": 1680.0,
  "Solid_Heat_Capacity_Const_B": 0.79267,
  "Solid_Heat_Capacity_Const_C": 0.0,
  "Solid_Heat_Capacity_Const_D": 0.0,
  "Solid_Heat_Capacity_Const_E": 0.0,
  "Solid_Heat_Capacity_Tmax": 249.15,
  "Solid_Heat_Capacity_Tmin": 50.0,
  "SolidDensityAtTs": 0.0,
  "SolidDensityEquation": "100",
  "SolidHeatCapacityEquation": "102",
  "SolidTs": 0.0,
  "SRK_Volume_Translation_Coefficient": 0.0,
  "StandardStateMolarVolume": 0.0,
  "StoichSum": 0,
  "Surface_Tension_Const_A": 0.00113331,
  "Surface_Tension_Const_B": -0.000428513,
  "Surface_Tension_Const_C": -0.00215229,
  "Surface_Tension_Const_D": 0.00918743,
  "Surface_Tension_Const_E": 0.0753759,
  "Surface_Tension_Tmax": 721.6,
  "Surface_Tension_Tmin": 249.15,
  "SurfaceTensionEquation": "116",
  "TemperatureOfFusion": 249.15,
  "UNIQUAC_Q": 3.2,
  "UNIQUAC_R": 3.981,
  "Vapor_Pressure_Constant_A": 68.476,
  "Vapor_Pressure_Constant_B": -8467.9,
  "Vapor_Pressure_Constant_C": -6.3622,
  "Vapor_Pressure_Constant_D": 3.2235E-18,
  "Vapor_Pressure_Constant_E": 6.0,
  "Vapor_Pressure_TMAX": 721.6,
  "Vapor_Pressure_TMIN": 249.15,
  "Vapor_Thermal_Conductivity_Const_A": 6.3319E-05,
  "Vapor_Thermal_Conductivity_Const_B": 1.1123,
  "Vapor_Thermal_Conductivity_Const_C": 714.73,
  "Vapor_Thermal_Conductivity_Const_D": 0.0,
  "Vapor_Thermal_Conductivity_Const_E": 0.0,
  "Vapor_Thermal_Conductivity_Tmax": 1000.0,
  "Vapor_Thermal_Conductivity_Tmin": 477.42,
  "Vapor_Viscosity_Const_A": 3.3091E-08,
  "Vapor_Viscosity_Const_B": 0.9515,
  "Vapor_Viscosity_Const_C": 27.617,
  "Vapor_Viscosity_Const_D": 0.0,
  "Vapor_Viscosity_Const_E": 0.0,
  "Vapor_Viscosity_Tmax": 1000.0,
  "Vapor_Viscosity_Tmin": 249.15,
  "VaporizationEnthalpyEquation": "106",
  "VaporPressureEquation": "101",
  "VaporThermalConductivityEquation": "102",
  "VaporViscosityEquation": "102",
  "Z_Rackett": 0.0,
  "Elements": {
    "C": 5.0,
    "H": 9.0,
    "N": 1.0,
    "O": 1.0
  },
  "MODFACGroups": {
    "86": "1"
  },
  "NISTMODFACGroups": {
    "86": "1"
  },
  "UNIFACGroups": {
    "85": "1"
  },
  "FullerDiffusionVolume": 92.64,
  "LennardJonesDiameter": 0.0,
  "LennardJonesEnergy": 0.0,
  "Parachor": 0.0438825,
  "Tag": "",
  "ExtraProperties": {},
  "COSTALD_SRK_Acentric_Factor": 0.373245,
  "COSTALD_Characteristic_Volume": 0.0,
  "IsSolid": false,
  "ChemSepFamily": 1000
}